# Forces      
# CofR        : (0.000000e+00 0.000000e+00 0.000000e+00)
# Time        forces(pressure viscous)	moments(pressure viscous)
0             	((0.000000e+00 0.000000e+00 0.000000e+00) (0.000000e+00 0.000000e+00 0.000000e+00)) ((0.000000e+00 0.000000e+00 0.000000e+00) (0.000000e+00 0.000000e+00 0.000000e+00))
0.05          	((3.739498e+01 -2.500518e-01 0.000000e+00) (5.371592e+00 7.689385e-02 7.991019e-19)) ((1.250259e-01 1.869749e+01 -1.872776e+02) (-3.844692e-02 2.685796e+00 -2.653580e+01))
0.1           	((3.302953e+01 -4.357351e-02 0.000000e+00) (3.432956e+00 8.199223e-02 9.661905e-19)) ((2.178675e-02 1.651476e+01 -1.657623e+02) (-4.099611e-02 1.716478e+00 -1.674181e+01))
0.15          	((3.201481e+01 1.595231e-01 0.000000e+00) (2.412184e+00 5.994202e-03 1.049042e-18)) ((-7.976155e-02 1.600741e+01 -1.597395e+02) (-2.997101e-03 1.206092e+00 -1.193683e+01))
0.2           	((3.198095e+01 3.860378e-01 0.000000e+00) (1.747969e+00 -2.849450e-02 1.064952e-18)) ((-1.930189e-01 1.599048e+01 -1.587475e+02) (1.424725e-02 8.739846e-01 -8.787055e+00))
0.25          	((3.213358e+01 5.141013e-01 0.000000e+00) (1.236585e+00 -4.369726e-02 1.145529e-18)) ((-2.570507e-01 1.606679e+01 -1.592080e+02) (2.184863e-02 6.182924e-01 -6.292979e+00))
0.3           	((3.224602e+01 3.927710e-01 0.000000e+00) (8.192844e-01 -6.560545e-02 1.226560e-18)) ((-1.963855e-01 1.612301e+01 -1.602518e+02) (3.280272e-02 4.096422e-01 -4.262154e+00))
0.35          	((3.230072e+01 2.860606e-01 0.000000e+00) (4.661808e-01 -6.968777e-02 1.313823e-18)) ((-1.430303e-01 1.615036e+01 -1.608986e+02) (3.484388e-02 2.330904e-01 -2.506606e+00))
0.4           	((3.230660e+01 1.345799e-01 0.000000e+00) (1.589769e-01 -6.360101e-02 1.407578e-18)) ((-6.728995e-02 1.615330e+01 -1.613875e+02) (3.180051e-02 7.948843e-02 -9.613322e-01))
0.45          	((3.228024e+01 1.224578e-01 0.000000e+00) (-1.118931e-01 -5.645457e-02 1.493152e-18)) ((-6.122888e-02 1.614012e+01 -1.613080e+02) (2.822729e-02 -5.594657e-02 4.047869e-01))
0.5           	((3.223363e+01 8.993711e-02 0.000000e+00) (-3.526801e-01 -5.227506e-02 1.549997e-18)) ((-4.496856e-02 1.611681e+01 -1.611247e+02) (2.613753e-02 -1.763400e-01 1.612973e+00))
0.55          	((3.197578e+01 5.784601e-02 0.000000e+00) (-5.691409e-01 -5.083683e-02 1.582277e-18)) ((-2.892300e-02 1.598789e+01 -1.599010e+02) (2.541842e-02 -2.845704e-01 2.692212e+00))
0.6           	((3.153650e+01 7.870267e-02 0.000000e+00) (-7.652934e-01 -4.858159e-02 1.601332e-18)) ((-3.935134e-02 1.576825e+01 -1.576246e+02) (2.429080e-02 -3.826467e-01 3.677447e+00))
0.65          	((3.084053e+01 3.363721e-02 0.000000e+00) (-9.397548e-01 -4.465122e-02 1.618022e-18)) ((-1.681860e-02 1.542026e+01 -1.542502e+02) (2.232561e-02 -4.698774e-01 4.562298e+00))
0.7           	((3.002206e+01 6.555726e-02 0.000000e+00) (-1.091541e+00 -3.865248e-02 1.624624e-18)) ((-3.277863e-02 1.501103e+01 -1.500691e+02) (1.932624e-02 -5.457707e-01 5.339492e+00))
0.75          	((2.909705e+01 1.085442e-01 0.000000e+00) (-1.223078e+00 -3.269485e-02 1.624480e-18)) ((-5.427208e-02 1.454852e+01 -1.453108e+02) (1.634743e-02 -6.115390e-01 6.014620e+00))
0.8           	((2.812829e+01 2.041044e-01 0.000000e+00) (-1.340657e+00 -2.989275e-02 1.615154e-18)) ((-1.020522e-01 1.406414e+01 -1.401783e+02) (1.494638e-02 -6.703287e-01 6.611328e+00))
0.85          	((2.713745e+01 2.059442e-01 0.000000e+00) (-1.449178e+00 -3.189645e-02 1.608313e-18)) ((-1.029721e-01 1.356873e+01 -1.352256e+02) (1.594822e-02 -7.245892e-01 7.148915e+00))
0.9           	((2.623407e+01 2.237000e-01 0.000000e+00) (-1.548742e+00 -3.290446e-02 1.612250e-18)) ((-1.118500e-01 1.311704e+01 -1.306249e+02) (1.645223e-02 -7.743710e-01 7.646226e+00))
0.95          	((2.536732e+01 2.571746e-01 0.000000e+00) (-1.638354e+00 -3.121893e-02 1.632880e-18)) ((-1.285873e-01 1.268366e+01 -1.261683e+02) (1.560946e-02 -8.191770e-01 8.103831e+00))
1             	((2.466572e+01 2.520823e-01 0.000000e+00) (-1.714749e+00 -2.890595e-02 1.666473e-18)) ((-1.260412e-01 1.233286e+01 -1.226764e+02) (1.445297e-02 -8.573747e-01 8.497785e+00))
1.05          	((2.416403e+01 2.869461e-01 0.000000e+00) (-1.774841e+00 -2.584808e-02 1.705231e-18)) ((-1.434731e-01 1.208202e+01 -1.200472e+02) (1.292404e-02 -8.874205e-01 8.811601e+00))
1.1           	((2.391880e+01 3.035771e-01 0.000000e+00) (-1.818746e+00 -2.212586e-02 1.746227e-18)) ((-1.517885e-01 1.195940e+01 -1.187562e+02) (1.106293e-02 -9.093730e-01 9.044592e+00))
1.15          	((2.397810e+01 3.940948e-01 0.000000e+00) (-1.848206e+00 -1.747075e-02 1.781339e-18)) ((-1.970474e-01 1.198905e+01 -1.187080e+02) (8.735376e-03 -9.241029e-01 9.206000e+00))
1.2           	((2.430901e+01 3.710418e-01 0.000000e+00) (-1.865152e+00 -1.478732e-02 1.807374e-18)) ((-1.855209e-01 1.215451e+01 -1.204539e+02) (7.393658e-03 -9.325759e-01 9.296144e+00))
1.25          	((2.484413e+01 4.505482e-01 0.000000e+00) (-1.869935e+00 -1.404926e-02 1.825429e-18)) ((-2.252741e-01 1.242206e+01 -1.228420e+02) (7.024629e-03 -9.349673e-01 9.316709e+00))
1.3           	((2.560506e+01 4.417495e-01 0.000000e+00) (-1.862642e+00 -1.499014e-02 1.832870e-18)) ((-2.208748e-01 1.280253e+01 -1.266597e+02) (7.495071e-03 -9.313212e-01 9.272039e+00))
1.35          	((2.655738e+01 5.066261e-01 0.000000e+00) (-1.838512e+00 -1.629069e-02 1.831947e-18)) ((-2.533130e-01 1.327869e+01 -1.311802e+02) (8.145346e-03 -9.192559e-01 9.145512e+00))
1.4           	((2.767142e+01 6.246954e-01 0.000000e+00) (-1.792003e+00 -1.810624e-02 1.819233e-18)) ((-3.123477e-01 1.383571e+01 -1.363120e+02) (9.053119e-03 -8.960013e-01 8.909677e+00))
1.45          	((2.892518e+01 7.359678e-01 0.000000e+00) (-1.721028e+00 -2.156382e-02 1.796758e-18)) ((-3.679839e-01 1.446259e+01 -1.421674e+02) (1.078191e-02 -8.605141e-01 8.548578e+00))
1.5           	((3.035816e+01 8.732857e-01 0.000000e+00) (-1.627424e+00 -2.508743e-02 1.765092e-18)) ((-4.366428e-01 1.517908e+01 -1.488227e+02) (1.254372e-02 -8.137120e-01 8.074528e+00))
1.55          	((3.199770e+01 9.881045e-01 0.000000e+00) (-1.513800e+00 -2.716268e-02 1.728933e-18)) ((-4.940523e-01 1.599885e+01 -1.566041e+02) (1.358134e-02 -7.568998e-01 7.504090e+00))
1.6           	((3.380642e+01 1.109400e+00 0.000000e+00) (-1.379012e+00 -2.798433e-02 1.691752e-18)) ((-5.546999e-01 1.690321e+01 -1.652078e+02) (1.399217e-02 -6.895060e-01 6.833684e+00))
1.65          	((3.569721e+01 1.241748e+00 0.000000e+00) (-1.221505e+00 -2.620633e-02 1.652281e-18)) ((-6.208739e-01 1.784861e+01 -1.741999e+02) (1.310317e-02 -6.107526e-01 6.061321e+00))
1.7           	((3.761803e+01 1.369973e+00 0.000000e+00) (-1.043410e+00 -2.129670e-02 1.609074e-18)) ((-6.849866e-01 1.880901e+01 -1.833675e+02) (1.064835e-02 -5.217049e-01 5.198654e+00))
1.75          	((3.952227e+01 1.423646e+00 0.000000e+00) (-8.518532e-01 -1.188837e-02 1.563693e-18)) ((-7.118232e-01 1.976113e+01 -1.927316e+02) (5.944187e-03 -4.259266e-01 4.284433e+00))
1.8           	((4.138595e+01 1.504561e+00 0.000000e+00) (-6.564179e-01 3.423284e-04 1.520400e-18)) ((-7.522804e-01 2.069298e+01 -2.018209e+02) (-1.711642e-04 -3.282090e-01 3.358936e+00))
1.85          	((4.311155e+01 1.510826e+00 0.000000e+00) (-4.680980e-01 1.298713e-02 1.482098e-18)) ((-7.554130e-01 2.155577e+01 -2.104845e+02) (-6.493567e-03 -2.340490e-01 2.466235e+00))
1.9           	((4.456720e+01 1.537945e+00 0.000000e+00) (-2.982194e-01 2.328533e-02 1.450068e-18)) ((-7.689725e-01 2.228360e+01 -2.177345e+02) (-1.164266e-02 -1.491097e-01 1.649217e+00))
1.95          	((4.578501e+01 1.600284e+00 0.000000e+00) (-1.556696e-01 2.590452e-02 1.420031e-18)) ((-8.001418e-01 2.289251e+01 -2.236981e+02) (-1.295226e-02 -7.783478e-02 9.296902e-01))
2             	((4.666329e+01 1.615598e+00 0.000000e+00) (-4.599046e-02 2.842649e-02 1.396626e-18)) ((-8.077988e-01 2.333165e+01 -2.281532e+02) (-1.421324e-02 -2.299523e-02 3.676704e-01))
2.05          	((4.712980e+01 1.647163e+00 0.000000e+00) (3.013168e-02 2.572377e-02 1.381773e-18)) ((-8.235814e-01 2.356490e+01 -2.304967e+02) (-1.286189e-02 1.506584e-02 -4.762920e-02))
2.1           	((4.724650e+01 1.617193e+00 0.000000e+00) (7.459318e-02 2.082148e-02 1.371233e-18)) ((-8.085964e-01 2.362325e+01 -2.312889e+02) (-1.041074e-02 3.729659e-02 -3.110120e-01))
2.15          	((4.705238e+01 1.613477e+00 0.000000e+00) (8.900235e-02 1.599233e-02 1.365239e-18)) ((-8.067383e-01 2.352619e+01 -2.304127e+02) (-7.996166e-03 4.450117e-02 -4.174050e-01))
2.2           	((4.661694e+01 1.600286e+00 0.000000e+00) (7.776611e-02 1.482119e-02 1.359214e-18)) ((-8.001432e-01 2.330847e+01 -2.283375e+02) (-7.410596e-03 3.888306e-02 -3.757436e-01))
2.25          	((4.605548e+01 1.627671e+00 0.000000e+00) (4.779661e-02 1.649112e-02 1.350391e-18)) ((-8.138357e-01 2.302774e+01 -2.254602e+02) (-8.245561e-03 2.389831e-02 -2.250128e-01))
2.3           	((4.539968e+01 1.560562e+00 0.000000e+00) (5.605513e-03 2.056070e-02 1.341014e-18)) ((-7.802811e-01 2.269984e+01 -2.224146e+02) (-1.028035e-02 2.802756e-03 -1.534386e-03))
2.35          	((4.471595e+01 1.534692e+00 0.000000e+00) (-4.135803e-02 2.455309e-02 1.333632e-18)) ((-7.673461e-01 2.235797e+01 -2.190972e+02) (-1.227655e-02 -2.067902e-02 2.475044e-01))
2.4           	((4.390845e+01 1.522116e+00 0.000000e+00) (-8.816325e-02 2.896503e-02 1.330008e-18)) ((-7.610579e-01 2.195423e+01 -2.151286e+02) (-1.448251e-02 -4.408162e-02 4.982085e-01))
2.45          	((4.307708e+01 1.514440e+00 0.000000e+00) (-1.325465e-01 3.417609e-02 1.329837e-18)) ((-7.572200e-01 2.153854e+01 -2.110206e+02) (-1.708804e-02 -6.627325e-02 7.400823e-01))
2.5           	((4.226649e+01 1.517886e+00 0.000000e+00) (-1.725258e-01 4.088998e-02 1.331490e-18)) ((-7.589428e-01 2.113325e+01 -2.069830e+02) (-2.044499e-02 -8.626289e-02 9.651617e-01))
2.55          	((4.157324e+01 1.547377e+00 0.000000e+00) (-2.066790e-01 4.844340e-02 1.332987e-18)) ((-7.736886e-01 2.078662e+01 -2.034539e+02) (-2.422170e-02 -1.033395e-01 1.163400e+00))
2.6           	((4.105831e+01 1.559626e+00 0.000000e+00) (-2.338281e-01 5.433141e-02 1.334487e-18)) ((-7.798131e-01 2.052915e+01 -2.008914e+02) (-2.716571e-02 -1.169140e-01 1.320217e+00))
2.65          	((4.074767e+01 1.579676e+00 0.000000e+00) (-2.532838e-01 5.977014e-02 1.333400e-18)) ((-7.898382e-01 2.037384e+01 -1.993378e+02) (-2.988507e-02 -1.266419e-01 1.436102e+00))
2.7           	((4.061001e+01 1.605577e+00 0.000000e+00) (-2.650452e-01 6.444398e-02 1.329864e-18)) ((-8.027886e-01 2.030501e+01 -1.986419e+02) (-3.222199e-02 -1.325226e-01 1.510276e+00))
2.75          	((4.058319e+01 1.622254e+00 0.000000e+00) (-2.703697e-01 6.837197e-02 1.325027e-18)) ((-8.111272e-01 2.029160e+01 -1.985307e+02) (-3.418599e-02 -1.351849e-01 1.549450e+00))
2.8           	((4.060016e+01 1.658465e+00 0.000000e+00) (-2.710568e-01 7.193240e-02 1.319432e-18)) ((-8.292327e-01 2.030008e+01 -1.985728e+02) (-3.596620e-02 -1.355284e-01 1.564582e+00))
2.85          	((4.061120e+01 1.708089e+00 0.000000e+00) (-2.693883e-01 7.561830e-02 1.313849e-18)) ((-8.540443e-01 2.030560e+01 -1.985324e+02) (-3.780915e-02 -1.346941e-01 1.569446e+00))
2.9           	((4.058615e+01 1.771034e+00 0.000000e+00) (-2.674782e-01 8.007764e-02 1.308542e-18)) ((-8.855171e-01 2.029308e+01 -1.982597e+02) (-4.003882e-02 -1.337391e-01 1.577292e+00))
2.95          	((4.049494e+01 1.845702e+00 0.000000e+00) (-2.670393e-01 8.511983e-02 1.304141e-18)) ((-9.228512e-01 2.024747e+01 -1.976115e+02) (-4.255991e-02 -1.335197e-01 1.595947e+00))
3             	((4.037194e+01 1.931871e+00 0.000000e+00) (-2.689455e-01 9.048853e-02 1.299594e-18)) ((-9.659355e-01 2.018597e+01 -1.967596e+02) (-4.524427e-02 -1.344728e-01 1.628598e+00))
3.05          	((4.023157e+01 2.016265e+00 0.000000e+00) (-2.733336e-01 9.604922e-02 1.294951e-18)) ((-1.008133e+00 2.011579e+01 -1.958214e+02) (-4.802461e-02 -1.366668e-01 1.674684e+00))
3.1           	((4.009150e+01 2.106554e+00 0.000000e+00) (-2.795776e-01 1.020872e-01 1.290359e-18)) ((-1.053277e+00 2.004575e+01 -1.948608e+02) (-5.104362e-02 -1.397888e-01 1.731410e+00))
3.15          	((3.997612e+01 2.179408e+00 0.000000e+00) (-2.867788e-01 1.083739e-01 1.285684e-18)) ((-1.089704e+00 1.998806e+01 -1.940785e+02) (-5.418693e-02 -1.433894e-01 1.792908e+00))
3.2           	((3.989577e+01 2.253618e+00 0.000000e+00) (-2.937666e-01 1.148506e-01 1.280809e-18)) ((-1.126809e+00 1.994788e+01 -1.934681e+02) (-5.742532e-02 -1.468833e-01 1.852824e+00))
3.25          	((3.982431e+01 2.309085e+00 0.000000e+00) (-2.994354e-01 1.215941e-01 1.276206e-18)) ((-1.154543e+00 1.991215e+01 -1.929644e+02) (-6.079705e-02 -1.497177e-01 1.905772e+00))
3.3           	((3.976425e+01 2.349000e+00 0.000000e+00) (-3.026525e-01 1.283561e-01 1.271905e-18)) ((-1.174500e+00 1.988213e+01 -1.925669e+02) (-6.417807e-02 -1.513263e-01 1.945455e+00))
3.35          	((3.970957e+01 2.364088e+00 0.000000e+00) (-3.038705e-01 1.348117e-01 1.267780e-18)) ((-1.182044e+00 1.985479e+01 -1.922721e+02) (-6.740587e-02 -1.519353e-01 1.973388e+00))
3.4           	((3.965842e+01 2.349506e+00 0.000000e+00) (-3.035003e-01 1.404728e-01 1.263863e-18)) ((-1.174753e+00 1.982921e+01 -1.920811e+02) (-7.023642e-02 -1.517501e-01 1.990480e+00))
3.45          	((3.960366e+01 2.308693e+00 0.000000e+00) (-3.021070e-01 1.449088e-01 1.260286e-18)) ((-1.154346e+00 1.980183e+01 -1.919438e+02) (-7.245442e-02 -1.510535e-01 1.998563e+00))
3.5           	((3.955538e+01 2.240222e+00 0.000000e+00) (-3.002957e-01 1.478086e-01 1.256729e-18)) ((-1.120111e+00 1.977769e+01 -1.919096e+02) (-7.390429e-02 -1.501478e-01 1.999943e+00))
3.55          	((3.951030e+01 2.147282e+00 0.000000e+00) (-2.986261e-01 1.489889e-01 1.253270e-18)) ((-1.073641e+00 1.975515e+01 -1.919490e+02) (-7.449445e-02 -1.493130e-01 1.996971e+00))
3.6           	((3.947620e+01 2.032118e+00 0.000000e+00) (-2.974282e-01 1.485254e-01 1.249736e-18)) ((-1.016059e+00 1.973810e+01 -1.920929e+02) (-7.426271e-02 -1.487141e-01 1.991402e+00))
3.65          	((3.944867e+01 1.913752e+00 0.000000e+00) (-2.968335e-01 1.465506e-01 1.246185e-18)) ((-9.568762e-01 1.972434e+01 -1.922627e+02) (-7.327532e-02 -1.484168e-01 1.984012e+00))
3.7           	((3.944015e+01 1.786245e+00 0.000000e+00) (-2.966754e-01 1.433984e-01 1.242391e-18)) ((-8.931224e-01 1.972007e+01 -1.925446e+02) (-7.169922e-02 -1.483377e-01 1.974619e+00))
3.75          	((3.943586e+01 1.655492e+00 0.000000e+00) (-2.966902e-01 1.395083e-01 1.238534e-18)) ((-8.277462e-01 1.971793e+01 -1.928520e+02) (-6.975413e-02 -1.483451e-01 1.962898e+00))
3.8           	((3.943399e+01 1.527147e+00 0.000000e+00) (-2.965397e-01 1.346612e-01 1.235310e-18)) ((-7.635737e-01 1.971699e+01 -1.931645e+02) (-6.733058e-02 -1.482698e-01 1.945847e+00))
3.85          	((3.942485e+01 1.392306e+00 0.000000e+00) (-2.959699e-01 1.294957e-01 1.232324e-18)) ((-6.961529e-01 1.971243e+01 -1.934677e+02) (-6.474786e-02 -1.479849e-01 1.924256e+00))
3.9           	((3.940117e+01 1.252917e+00 0.000000e+00) (-2.948058e-01 1.244006e-01 1.229687e-18)) ((-6.264583e-01 1.970058e+01 -1.937226e+02) (-6.220030e-02 -1.474029e-01 1.898704e+00))
3.95          	((3.936204e+01 1.090169e+00 0.000000e+00) (-2.930289e-01 1.194618e-01 1.227546e-18)) ((-5.450846e-01 1.968102e+01 -1.939863e+02) (-5.973089e-02 -1.465144e-01 1.869731e+00))
4             	((3.929369e+01 9.080941e-01 0.000000e+00) (-2.907635e-01 1.146120e-01 1.226070e-18)) ((-4.540471e-01 1.964685e+01 -1.941782e+02) (-5.730599e-02 -1.453817e-01 1.838216e+00))
4.05          	((3.920297e+01 6.914257e-01 0.000000e+00) (-2.881584e-01 1.097695e-01 1.225060e-18)) ((-3.457128e-01 1.960149e+01 -1.943770e+02) (-5.488477e-02 -1.440792e-01 1.805190e+00))
4.1           	((3.908913e+01 4.384481e-01 0.000000e+00) (-2.855382e-01 1.047114e-01 1.224472e-18)) ((-2.192241e-01 1.954457e+01 -1.945811e+02) (-5.235568e-02 -1.427691e-01 1.772061e+00))
4.15          	((3.895272e+01 1.539555e-01 0.000000e+00) (-2.833272e-01 9.994207e-02 1.225156e-18)) ((-7.697777e-02 1.947636e+01 -1.947690e+02) (-4.997103e-02 -1.416636e-01 1.743209e+00))
4.2           	((3.881107e+01 -1.657872e-01 0.000000e+00) (-2.817959e-01 9.486789e-02 1.226035e-18)) ((8.289359e-02 1.940554e+01 -1.950306e+02) (-4.743394e-02 -1.408980e-01 1.718178e+00))
4.25          	((3.867129e+01 -5.178597e-01 0.000000e+00) (-2.809960e-01 8.913948e-02 1.227175e-18)) ((2.589298e-01 1.933564e+01 -1.953843e+02) (-4.456974e-02 -1.404980e-01 1.696025e+00))
4.3           	((3.854014e+01 -9.033673e-01 0.000000e+00) (-2.808393e-01 8.239127e-02 1.228172e-18)) ((4.516836e-01 1.927007e+01 -1.958615e+02) (-4.119564e-02 -1.404196e-01 1.674815e+00))
4.35          	((3.843449e+01 -1.326615e+00 0.000000e+00) (-2.810555e-01 7.407491e-02 1.228891e-18)) ((6.633076e-01 1.921724e+01 -1.965554e+02) (-3.703746e-02 -1.405278e-01 1.651000e+00))
4.4           	((3.834407e+01 -1.779479e+00 0.000000e+00) (-2.814068e-01 6.369317e-02 1.229340e-18)) ((8.897394e-01 1.917204e+01 -1.973868e+02) (-3.184659e-02 -1.407034e-01 1.621154e+00))
4.45          	((3.828165e+01 -2.271666e+00 0.000000e+00) (-2.816942e-01 5.084021e-02 1.229367e-18)) ((1.135833e+00 1.914082e+01 -1.984493e+02) (-2.542010e-02 -1.408471e-01 1.582261e+00))
4.5           	((3.824356e+01 -2.802452e+00 0.000000e+00) (-2.818908e-01 3.511691e-02 1.229003e-18)) ((1.401226e+00 1.912178e+01 -1.997230e+02) (-1.755845e-02 -1.409454e-01 1.532228e+00))
4.55          	((3.821364e+01 -3.376511e+00 0.000000e+00) (-2.812330e-01 1.622633e-02 1.228431e-18)) ((1.688255e+00 1.910682e+01 -2.011430e+02) (-8.113167e-03 -1.406165e-01 1.465724e+00))
4.6           	((3.820076e+01 -3.993822e+00 0.000000e+00) (-2.797551e-01 -6.008257e-03 1.227763e-18)) ((1.996911e+00 1.910038e+01 -2.027561e+02) (3.004129e-03 -1.398775e-01 1.381942e+00))
4.65          	((3.819921e+01 -4.652920e+00 0.000000e+00) (-2.780550e-01 -3.168801e-02 1.227008e-18)) ((2.326460e+00 1.909960e+01 -2.045348e+02) (1.584401e-02 -1.390275e-01 1.283289e+00))
4.7           	((3.820229e+01 -5.358195e+00 0.000000e+00) (-2.763464e-01 -6.081293e-02 1.226371e-18)) ((2.679097e+00 1.910115e+01 -2.064618e+02) (3.040646e-02 -1.381732e-01 1.170849e+00))
4.75          	((3.821078e+01 -6.112197e+00 0.000000e+00) (-2.748092e-01 -9.325658e-02 1.225897e-18)) ((3.056099e+00 1.910539e+01 -2.085533e+02) (4.662829e-02 -1.374046e-01 1.046053e+00))
4.8           	((3.822217e+01 -6.908496e+00 0.000000e+00) (-2.735740e-01 -1.288310e-01 1.225819e-18)) ((3.454248e+00 1.911108e+01 -2.107802e+02) (6.441549e-02 -1.367870e-01 9.103973e-01))
4.85          	((3.824887e+01 -7.749824e+00 0.000000e+00) (-2.727108e-01 -1.672288e-01 1.225971e-18)) ((3.874912e+00 1.912443e+01 -2.132194e+02) (8.361438e-02 -1.363554e-01 7.655713e-01))
4.9           	((3.828260e+01 -8.630837e+00 0.000000e+00) (-2.724028e-01 -2.081746e-01 1.226519e-18)) ((4.315418e+00 1.914130e+01 -2.158113e+02) (1.040873e-01 -1.362014e-01 6.137329e-01))
4.95          	((3.832868e+01 -9.548265e+00 0.000000e+00) (-2.719418e-01 -2.513488e-01 1.227433e-18)) ((4.774133e+00 1.916434e+01 -2.185740e+02) (1.256744e-01 -1.359709e-01 4.527027e-01))
5             	((3.840503e+01 -1.051596e+01 0.000000e+00) (-2.710752e-01 -2.964782e-01 1.228164e-18)) ((5.257979e+00 1.920251e+01 -2.216426e+02) (1.482391e-01 -1.355376e-01 2.824402e-01))
5.05          	((3.850298e+01 -1.150055e+01 0.000000e+00) (-2.702668e-01 -3.433435e-01 1.229173e-18)) ((5.750275e+00 1.925149e+01 -2.248662e+02) (1.716717e-01 -1.351334e-01 1.062298e-01))
5.1           	((3.862739e+01 -1.252229e+01 0.000000e+00) (-2.694022e-01 -3.916837e-01 1.230471e-18)) ((6.261143e+00 1.931370e+01 -2.283363e+02) (1.958419e-01 -1.347011e-01 -7.539516e-02))
5.15          	((3.878035e+01 -1.355787e+01 0.000000e+00) (-2.685844e-01 -4.413981e-01 1.231660e-18)) ((6.778936e+00 1.939018e+01 -2.319877e+02) (2.206991e-01 -1.342922e-01 -2.614836e-01))
5.2           	((3.896332e+01 -1.461091e+01 0.000000e+00) (-2.682218e-01 -4.923877e-01 1.232923e-18)) ((7.305454e+00 1.948166e+01 -2.358417e+02) (2.461939e-01 -1.341109e-01 -4.494974e-01))
5.25          	((3.918356e+01 -1.567611e+01 0.000000e+00) (-2.662194e-01 -5.446432e-01 1.233675e-18)) ((7.838054e+00 1.959178e+01 -2.399190e+02) (2.723216e-01 -1.331097e-01 -6.500755e-01))
5.3           	((3.943006e+01 -1.672841e+01 0.000000e+00) (-2.642510e-01 -5.979937e-01 1.234346e-18)) ((8.364204e+00 1.971503e+01 -2.440894e+02) (2.989968e-01 -1.321255e-01 -8.540667e-01))
5.35          	((3.971367e+01 -1.777549e+01 0.000000e+00) (-2.624580e-01 -6.523673e-01 1.234496e-18)) ((8.887746e+00 1.985683e+01 -2.484340e+02) (3.261837e-01 -1.312290e-01 -1.060532e+00))
5.4           	((4.002494e+01 -1.880880e+01 0.000000e+00) (-2.610343e-01 -7.075958e-01 1.234125e-18)) ((9.404400e+00 2.001247e+01 -2.528815e+02) (3.537979e-01 -1.305171e-01 -1.267927e+00))
5.45          	((4.036078e+01 -1.981235e+01 0.000000e+00) (-2.596854e-01 -7.634198e-01 1.233246e-18)) ((9.906177e+00 2.018039e+01 -2.573710e+02) (3.817099e-01 -1.298427e-01 -1.476904e+00))
5.5           	((4.072083e+01 -2.078027e+01 0.000000e+00) (-2.574619e-01 -8.195200e-01 1.231980e-18)) ((1.039013e+01 2.036042e+01 -2.618892e+02) (4.097600e-01 -1.287309e-01 -1.691387e+00))
5.55          	((4.109871e+01 -2.170854e+01 0.000000e+00) (-2.553851e-01 -8.755730e-01 1.230290e-18)) ((1.085427e+01 2.054935e+01 -2.663901e+02) (4.377865e-01 -1.276926e-01 -1.904862e+00))
5.6           	((4.149783e+01 -2.258598e+01 0.000000e+00) (-2.537488e-01 -9.312276e-01 1.228480e-18)) ((1.129299e+01 2.074891e+01 -2.708634e+02) (4.656138e-01 -1.268744e-01 -2.114497e+00))
5.65          	((4.189255e+01 -2.340799e+01 0.000000e+00) (-2.515491e-01 -9.859509e-01 1.226405e-18)) ((1.170399e+01 2.094628e+01 -2.751606e+02) (4.929754e-01 -1.257745e-01 -2.323731e+00))
5.7           	((4.229789e+01 -2.416221e+01 0.000000e+00) (-2.485458e-01 -1.039262e+00 1.224377e-18)) ((1.208111e+01 2.114895e+01 -2.793282e+02) (5.196309e-01 -1.242729e-01 -2.532084e+00))
5.75          	((4.270243e+01 -2.484745e+01 0.000000e+00) (-2.454426e-01 -1.090924e+00 1.222172e-18)) ((1.242373e+01 2.135122e+01 -2.833020e+02) (5.454621e-01 -1.227213e-01 -2.734554e+00))
5.8           	((4.309887e+01 -2.545185e+01 0.000000e+00) (-2.433181e-01 -1.140576e+00 1.219942e-18)) ((1.272592e+01 2.154943e+01 -2.870099e+02) (5.702879e-01 -1.216591e-01 -2.924314e+00))
5.85          	((4.347373e+01 -2.596791e+01 0.000000e+00) (-2.396454e-01 -1.187602e+00 1.217645e-18)) ((1.298395e+01 2.173686e+01 -2.903599e+02) (5.938012e-01 -1.198227e-01 -3.112906e+00))
5.9           	((4.383308e+01 -2.638648e+01 0.000000e+00) (-2.359186e-01 -1.231579e+00 1.215501e-18)) ((1.319324e+01 2.191654e+01 -2.933575e+02) (6.157896e-01 -1.179593e-01 -3.290707e+00))
5.95          	((4.416837e+01 -2.670195e+01 0.000000e+00) (-2.322608e-01 -1.272129e+00 1.213409e-18)) ((1.335098e+01 2.208418e+01 -2.959427e+02) (6.360644e-01 -1.161304e-01 -3.455726e+00))
6             	((4.447723e+01 -2.690301e+01 0.000000e+00) (-2.289159e-01 -1.308896e+00 1.211457e-18)) ((1.345150e+01 2.223862e+01 -2.980724e+02) (6.544478e-01 -1.144579e-01 -3.605392e+00))
6.05          	((4.475618e+01 -2.697562e+01 0.000000e+00) (-2.253861e-01 -1.341493e+00 1.209363e-18)) ((1.348781e+01 2.237809e+01 -2.996823e+02) (6.707466e-01 -1.126931e-01 -3.741195e+00))
6.1           	((4.500925e+01 -2.691894e+01 0.000000e+00) (-2.212122e-01 -1.369569e+00 1.207343e-18)) ((1.345947e+01 2.250462e+01 -3.007985e+02) (6.847847e-01 -1.106061e-01 -3.864504e+00))
6.15          	((4.522615e+01 -2.672300e+01 0.000000e+00) (-2.172767e-01 -1.392764e+00 1.205423e-18)) ((1.336150e+01 2.261308e+01 -3.013364e+02) (6.963818e-01 -1.086384e-01 -3.969220e+00))
6.2           	((4.542017e+01 -2.637410e+01 0.000000e+00) (-2.135538e-01 -1.410728e+00 1.203284e-18)) ((1.318705e+01 2.271009e+01 -3.013219e+02) (7.053638e-01 -1.067769e-01 -4.054268e+00))
6.25          	((4.557750e+01 -2.587080e+01 0.000000e+00) (-2.100095e-01 -1.423065e+00 1.201332e-18)) ((1.293540e+01 2.278875e+01 -3.006843e+02) (7.115326e-01 -1.050047e-01 -4.118414e+00))
6.3           	((4.569749e+01 -2.521802e+01 0.000000e+00) (-2.066764e-01 -1.429513e+00 1.198889e-18)) ((1.260901e+01 2.284875e+01 -2.994310e+02) (7.147566e-01 -1.033382e-01 -4.160640e+00))
6.35          	((4.577719e+01 -2.439484e+01 0.000000e+00) (-2.035718e-01 -1.429776e+00 1.196544e-18)) ((1.219742e+01 2.288859e+01 -2.974851e+02) (7.148880e-01 -1.017859e-01 -4.179808e+00))
6.4           	((4.581401e+01 -2.340539e+01 0.000000e+00) (-2.006579e-01 -1.423598e+00 1.193901e-18)) ((1.170269e+01 2.290701e+01 -2.948446e+02) (7.117989e-01 -1.003290e-01 -4.175171e+00))
6.45          	((4.579874e+01 -2.224791e+01 0.000000e+00) (-1.979988e-01 -1.410813e+00 1.191148e-18)) ((1.112395e+01 2.289937e+01 -2.914580e+02) (7.054067e-01 -9.899940e-02 -4.145785e+00))
6.5           	((4.572801e+01 -2.091986e+01 0.000000e+00) (-1.955239e-01 -1.391233e+00 1.188176e-18)) ((1.045993e+01 2.286400e+01 -2.872983e+02) (6.956163e-01 -9.776197e-02 -4.091375e+00))
6.55          	((4.560314e+01 -1.942164e+01 0.000000e+00) (-1.929328e-01 -1.364666e+00 1.185121e-18)) ((9.710822e+00 2.280157e+01 -2.823750e+02) (6.823332e-01 -9.646639e-02 -4.012917e+00))
6.6           	((4.541201e+01 -1.775709e+01 0.000000e+00) (-1.903338e-01 -1.330966e+00 1.182244e-18)) ((8.878544e+00 2.270601e+01 -2.766394e+02) (6.654832e-01 -9.516691e-02 -3.909274e+00))
6.65          	((4.515976e+01 -1.593036e+01 0.000000e+00) (-1.881009e-01 -1.289996e+00 1.179624e-18)) ((7.965180e+00 2.257988e+01 -2.701316e+02) (6.449982e-01 -9.405046e-02 -3.778055e+00))
6.7           	((4.483885e+01 -1.393041e+01 0.000000e+00) (-1.864220e-01 -1.241590e+00 1.176850e-18)) ((6.965203e+00 2.241942e+01 -2.627782e+02) (6.207948e-01 -9.321098e-02 -3.617575e+00))
6.75          	((4.445461e+01 -1.176959e+01 0.000000e+00) (-1.852698e-01 -1.185630e+00 1.174526e-18)) ((5.884796e+00 2.222730e+01 -2.546455e+02) (5.928148e-01 -9.263492e-02 -3.427508e+00))
6.8           	((4.401800e+01 -9.441469e+00 0.000000e+00) (-1.846756e-01 -1.121945e+00 1.172165e-18)) ((4.720735e+00 2.200900e+01 -2.457695e+02) (5.609727e-01 -9.233781e-02 -3.207074e+00))
6.85          	((4.353266e+01 -6.957762e+00 0.000000e+00) (-1.846995e-01 -1.050269e+00 1.169801e-18)) ((3.478881e+00 2.176633e+01 -2.362042e+02) (5.251347e-01 -9.234976e-02 -2.955006e+00))
6.9           	((4.301258e+01 -4.317460e+00 0.000000e+00) (-1.855397e-01 -9.715984e-01 1.168173e-18)) ((2.158730e+00 2.150629e+01 -2.260213e+02) (4.857992e-01 -9.276987e-02 -2.673755e+00))
6.95          	((4.246060e+01 -1.517016e+00 0.000000e+00) (-1.868413e-01 -8.845398e-01 1.167003e-18)) ((7.585078e-01 2.123030e+01 -2.152199e+02) (4.422699e-01 -9.342065e-02 -2.360354e+00))
7             	((4.191168e+01 1.436365e+00 0.000000e+00) (-1.878678e-01 -7.893136e-01 1.166150e-18)) ((-7.181824e-01 2.095584e+01 -2.040057e+02) (3.946568e-01 -9.393392e-02 -2.019604e+00))
7.05          	((4.138309e+01 4.530011e+00 0.000000e+00) (-1.899362e-01 -6.859154e-01 1.164943e-18)) ((-2.265005e+00 2.069154e+01 -1.925050e+02) (3.429577e-01 -9.496811e-02 -1.644318e+00))
7.1           	((4.088209e+01 7.763351e+00 0.000000e+00) (-1.925269e-01 -5.743021e-01 1.163704e-18)) ((-3.881675e+00 2.044105e+01 -1.807578e+02) (2.871511e-01 -9.626346e-02 -1.237147e+00))
7.15          	((4.044907e+01 1.112509e+01 0.000000e+00) (-1.953820e-01 -4.547908e-01 1.162605e-18)) ((-5.562547e+00 2.022454e+01 -1.690110e+02) (2.273954e-01 -9.769102e-02 -7.997016e-01))
7.2           	((4.011262e+01 1.459287e+01 0.000000e+00) (-1.987692e-01 -3.269643e-01 1.161370e-18)) ((-7.296433e+00 2.005631e+01 -1.574723e+02) (1.634822e-01 -9.938460e-02 -3.292690e-01))
7.25          	((3.991780e+01 1.815385e+01 0.000000e+00) (-2.025585e-01 -1.908025e-01 1.160382e-18)) ((-9.076924e+00 1.995890e+01 -1.464170e+02) (9.540125e-02 -1.012793e-01 1.733419e-01))
7.3           	((3.986955e+01 2.177583e+01 0.000000e+00) (-2.061190e-01 -4.630709e-02 1.158807e-18)) ((-1.088792e+01 1.993478e+01 -1.359592e+02) (2.315354e-02 -1.030595e-01 7.054484e-01))
7.35          	((4.003233e+01 2.544054e+01 0.000000e+00) (-2.107844e-01 1.064047e-01 1.157871e-18)) ((-1.272027e+01 2.001616e+01 -1.264822e+02) (-5.320235e-02 -1.053922e-01 1.274005e+00))
7.4           	((4.043678e+01 2.908987e+01 0.000000e+00) (-2.155074e-01 2.664527e-01 1.155596e-18)) ((-1.454494e+01 2.021839e+01 -1.183009e+02) (-1.332263e-01 -1.077537e-01 1.871077e+00))
7.45          	((4.109363e+01 3.271721e+01 0.000000e+00) (-2.200461e-01 4.331054e-01 1.152763e-18)) ((-1.635861e+01 2.054681e+01 -1.114735e+02) (-2.165527e-01 -1.100230e-01 2.493296e+00))
7.5           	((4.205651e+01 3.626114e+01 0.000000e+00) (-2.250288e-01 6.051550e-01 1.148783e-18)) ((-1.813057e+01 2.102826e+01 -1.064273e+02) (-3.025775e-01 -1.125144e-01 3.139914e+00))
7.55          	((4.330554e+01 3.966170e+01 0.000000e+00) (-2.301800e-01 7.811054e-01 1.143722e-18)) ((-1.983085e+01 2.165277e+01 -1.032104e+02) (-3.905527e-01 -1.150900e-01 3.804141e+00))
7.6           	((4.482537e+01 4.288139e+01 0.000000e+00) (-2.348128e-01 9.592210e-01 1.138148e-18)) ((-2.144069e+01 2.241269e+01 -1.018163e+02) (-4.796105e-01 -1.174064e-01 4.476068e+00))
7.65          	((4.658622e+01 4.588133e+01 0.000000e+00) (-2.376951e-01 1.136759e+00 1.130839e-18)) ((-2.294067e+01 2.329311e+01 -1.021711e+02) (-5.683795e-01 -1.188475e-01 5.140734e+00))
7.7           	((4.853221e+01 4.859618e+01 0.000000e+00) (-2.389606e-01 1.311551e+00 1.123294e-18)) ((-2.429809e+01 2.426610e+01 -1.041699e+02) (-6.557753e-01 -1.194803e-01 5.790039e+00))
7.75          	((5.061029e+01 5.100525e+01 0.000000e+00) (-2.380459e-01 1.480687e+00 1.115247e-18)) ((-2.550263e+01 2.530514e+01 -1.075753e+02) (-7.403433e-01 -1.190229e-01 6.410423e+00))
7.8           	((5.274763e+01 5.303036e+01 0.000000e+00) (-2.336675e-01 1.641679e+00 1.106888e-18)) ((-2.651518e+01 2.637381e+01 -1.122691e+02) (-8.208393e-01 -1.168337e-01 6.987180e+00))
7.85          	((5.490159e+01 5.463434e+01 0.000000e+00) (-2.244444e-01 1.792230e+00 1.098294e-18)) ((-2.731717e+01 2.745079e+01 -1.181568e+02) (-8.961152e-01 -1.122222e-01 7.504904e+00))